DF-ISE text

Info {
  version = 1.1
  type    = boundary
  dimension   = 3
  nb_vertices = 78
  nb_edges    = 251
  nb_faces    = 176
  nb_elements = 2
  nb_regions  = 2
  regions     = [ "Bond_oxide" "Bottom_silicon" ]
  materials   = [ Oxide Silicon ]
}

Data {

  CoordSystem {
    translate = [  0.000000000000000e+00 0.000000000000000e+00 0.000000000000000e+00 ]
    transform = [  1.000000000000000e+00 0.000000000000000e+00 0.000000000000000e+00
 0.000000000000000e+00 1.000000000000000e+00 0.000000000000000e+00
 0.000000000000000e+00 0.000000000000000e+00 1.000000000000000e+00
 ]
  }

  Vertices (78) {
 7.000000000000000e+01 7.000000000000000e+01 0.000000000000000e+00
 5.218576590711771e+01 7.000000000000001e+01 7.100000000000000e-15
 7.000000000000000e+01 -6.531254187605923e+01 0.000000000000000e+00
 4.999999999999999e+01 7.000000000000001e+01 7.100000000000000e-15
 5.000000000000002e+01 -7.000000000000000e+01 0.000000000000000e+00
 7.000000000000000e+01 -7.000000000000000e+01 0.000000000000000e+00
 -4.781423409288232e+01 7.000000000000000e+01 0.000000000000000e+00
 -5.000000000000004e+01 7.000000000000000e+01 0.000000000000000e+00
 -4.999999999999997e+01 -7.000000000000000e+01 -7.100000000000000e-15
 -2.938288443064681e+01 -7.000000000000001e+01 -7.100000000000000e-15
 -7.000000000000000e+01 7.000000000000000e+01 0.000000000000000e+00
 -7.000000000000000e+01 6.531254187605900e+01 0.000000000000000e+00
 -5.218576590711770e+01 -7.000000000000000e+01 -7.100000000000000e-15
 -2.588190451025213e+01 6.999999999999999e+01 0.000000000000000e+00
 -2.588190451025205e+01 -7.000000000000000e+01 -7.100000000000000e-15
 -2.238092458985736e+01 7.000000000000000e+01 0.000000000000000e+00
 -3.949574927621879e+00 -7.000000000000000e+01 -7.100000000000000e-15
 -7.000000000000000e+01 -7.000000000000000e+01 0.000000000000000e+00
 1.800000000000000e-15 7.000000000000000e+01 7.100000000000000e-15
 1.040000000000000e-14 -7.000000000000000e+01 -7.100000000000000e-15
 3.949574927621879e+00 7.000000000000000e+01 7.100000000000000e-15
 2.238092458985731e+01 -7.000000000000000e+01 0.000000000000000e+00
 2.588190451025208e+01 7.000000000000000e+01 7.100000000000000e-15
 2.588190451025209e+01 -7.000000000000000e+01 0.000000000000000e+00
 2.938288443064685e+01 7.000000000000001e+01 7.100000000000000e-15
 4.781423409288230e+01 -7.000000000000000e+01 0.000000000000000e+00
 -4.999999999999997e+01 -7.000000000000001e+01 9.999999999999993e+00
 -7.000000000000000e+01 -7.000000000000000e+01 1.000000000000000e+01
 -4.781423409288225e+01 -7.000000000000000e+01 9.999999999999993e+00
 -2.588190451025205e+01 -7.000000000000000e+01 9.999999999999993e+00
 -2.238092458985725e+01 -7.000000000000000e+01 9.999999999999993e+00
 9.800000000000000e-15 -7.000000000000000e+01 9.999999999999993e+00
 3.949574927621887e+00 -7.000000000000000e+01 1.000000000000000e+01
 2.588190451025209e+01 -7.000000000000000e+01 1.000000000000000e+01
 2.938288443064688e+01 -7.000000000000000e+01 1.000000000000000e+01
 5.000000000000002e+01 -6.999999999999999e+01 1.000000000000000e+01
 7.000000000000000e+01 -7.000000000000000e+01 1.000000000000000e+01
 5.218576590711774e+01 -7.000000000000000e+01 1.000000000000000e+01
 -7.000000000000000e+01 -6.531254187605954e+01 9.999999999999993e+00
 -7.000000000000000e+01 7.000000000000000e+01 1.000000000000000e+01
 7.000000000000000e+01 6.531254187605926e+01 1.000000000000001e+01
 7.000000000000000e+01 7.000000000000000e+01 1.000000000000000e+01
 -5.218576590711776e+01 7.000000000000000e+01 1.000000000000000e+01
 -5.000000000000004e+01 7.000000000000000e+01 1.000000000000000e+01
 -2.938288443064691e+01 7.000000000000000e+01 1.000000000000000e+01
 -2.588190451025213e+01 7.000000000000000e+01 1.000000000000000e+01
 -3.949574927621867e+00 6.999999999999999e+01 1.000000000000000e+01
 1.200000000000000e-15 7.000000000000000e+01 1.000000000000000e+01
 2.238092458985730e+01 7.000000000000000e+01 1.000000000000001e+01
 2.588190451025208e+01 7.000000000000000e+01 1.000000000000001e+01
 4.781423409288227e+01 7.000000000000000e+01 1.000000000000001e+01
 4.999999999999999e+01 7.000000000000000e+01 1.000000000000001e+01
 -7.000000000000000e+01 -6.531254187605954e+01 1.196999999999999e+01
 -7.000000000000000e+01 7.000000000000000e+01 1.197000000000003e+01
 -5.218576590711776e+01 7.000000000000000e+01 1.197000000000000e+01
 -5.000000000000004e+01 7.000000000000000e+01 1.197000000000000e+01
 -4.999999999999997e+01 -7.000000000000001e+01 1.196999999999999e+01
 -7.000000000000000e+01 -7.000000000000000e+01 1.197000000000003e+01
 -4.781423409288225e+01 -7.000000000000000e+01 1.196999999999999e+01
 -2.938288443064691e+01 7.000000000000000e+01 1.197000000000000e+01
 -2.588190451025205e+01 -7.000000000000000e+01 1.196999999999999e+01
 -2.588190451025213e+01 7.000000000000000e+01 1.197000000000000e+01
 2.938288443064688e+01 -7.000000000000000e+01 1.197000000000000e+01
 2.588190451025208e+01 7.000000000000000e+01 1.197000000000001e+01
 4.781423409288227e+01 7.000000000000000e+01 1.197000000000001e+01
 2.588190451025209e+01 -7.000000000000000e+01 1.197000000000000e+01
 2.238092458985730e+01 7.000000000000000e+01 1.197000000000001e+01
 3.949574927621887e+00 -7.000000000000000e+01 1.197000000000000e+01
 5.000000000000002e+01 -6.999999999999999e+01 1.197000000000000e+01
 4.999999999999999e+01 7.000000000000000e+01 1.197000000000001e+01
 1.100000000000000e-15 7.000000000000000e+01 1.197000000000001e+01
 9.600000000000000e-15 -7.000000000000000e+01 1.197000000000000e+01
 -3.949574927621867e+00 6.999999999999999e+01 1.197000000000001e+01
 -2.238092458985725e+01 -7.000000000000000e+01 1.197000000000000e+01
 7.000000000000000e+01 6.531254187605926e+01 1.197000000000001e+01
 7.000000000000000e+01 7.000000000000000e+01 1.197000000000003e+01
 5.218576590711774e+01 -7.000000000000000e+01 1.197000000000000e+01
 7.000000000000000e+01 -7.000000000000000e+01 1.197000000000003e+01

  }

  Edges (251) {
 0 1
 0 2
 1 2
 1 3
 1 4
 3 4
 2 4
 2 5
 4 5
 6 7
 6 8
 7 8
 6 9
 8 9
 10 11
 7 10
 7 11
 7 12
 11 12
 8 12
 6 13
 9 13
 13 14
 9 14
 13 15
 14 15
 15 16
 14 16
 12 17
 11 17
 15 18
 16 18
 18 19
 16 19
 18 20
 19 20
 20 21
 19 21
 20 22
 21 22
 22 23
 21 23
 22 24
 23 24
 24 25
 23 25
 3 24
 3 25
 4 25
 23 26
 21 26
 19 26
 16 26
 14 26
 9 26
 26 27
 9 27
 8 27
 17 27
 12 27
 25 26
 4 26
 4 28
 26 28
 4 29
 28 29
 29 30
 4 30
 4 31
 30 31
 4 32
 31 32
 32 33
 4 33
 4 34
 33 34
 5 34
 5 35
 34 35
 5 36
 36 37
 5 37
 35 37
 17 38
 38 39
 17 39
 27 38
 11 39
 10 39
 0 40
 36 40
 0 36
 40 41
 0 41
 2 36
 10 42
 39 42
 10 43
 43 44
 10 44
 42 43
 7 44
 44 45
 7 45
 45 46
 7 46
 46 47
 7 47
 47 48
 7 48
 48 49
 7 49
 49 50
 7 50
 50 51
 7 51
 6 51
 13 51
 15 51
 18 51
 20 51
 22 51
 24 51
 24 41
 41 51
 3 41
 1 41
 52 53
 52 54
 53 54
 55 56
 54 55
 54 56
 52 56
 52 57
 56 57
 55 58
 58 59
 55 59
 56 58
 59 60
 60 61
 59 61
 58 60
 29 45
 29 44
 28 44
 31 47
 31 46
 30 46
 33 49
 33 48
 32 48
 35 51
 35 50
 34 50
 37 40
 40 51
 37 51
 34 49
 32 47
 30 45
 62 63
 62 64
 63 64
 63 65
 62 65
 65 66
 63 66
 66 67
 65 67
 64 68
 68 69
 64 69
 62 68
 67 70
 66 70
 70 71
 67 71
 71 72
 70 72
 72 73
 71 73
 69 74
 74 75
 69 75
 69 76
 74 76
 68 76
 61 73
 61 72
 60 73
 76 77
 74 77
 28 43
 26 43
 26 42
 26 38
 38 42
 50 75
 50 69
 45 69
 44 69
 46 69
 47 69
 48 69
 49 69
 51 75
 41 75
 43 69
 42 69
 42 64
 42 63
 42 66
 42 70
 42 72
 42 61
 42 59
 39 59
 39 55
 39 53
 39 54
 38 53
 38 52
 27 52
 27 57
 41 74
 40 74
 40 77
 36 77
 28 56
 28 57
 36 76
 36 68
 36 62
 37 62
 37 65
 37 67
 37 71
 37 73
 37 60
 37 58
 37 56
 35 56
 34 56
 33 56
 32 56
 31 56
 30 56
 29 56
 26 57

  }

  Faces (176) {
 3 -1 1 -3
 3 -4 4 -6
 3 2 6 -5
 3 7 -9 -7
 3 -10 10 -12
 3 12 -14 -11
 3 -15 -16 16
 3 -17 17 -19
 3 11 19 -18
 3 20 -22 -13
 3 22 -24 21
 3 24 -26 -23
 3 26 -28 25
 3 18 28 -30
 3 30 -32 -27
 3 32 -34 31
 3 34 -36 -33
 3 36 -38 35
 3 38 -40 -37
 3 40 -42 39
 3 42 -44 -41
 3 44 -46 43
 3 -47 47 -45
 3 5 48 -48
 3 41 49 -51
 3 50 -52 37
 3 -53 33 51
 3 27 52 -54
 3 53 -55 23
 3 55 -57 54
 3 -58 13 56
 3 -59 -29 59
 3 -60 -20 57
 3 -61 -49 61
 3 45 60 -50
 3 -62 62 -64
 3 64 -66 -63
 3 -67 -65 67
 3 -68 68 -70
 3 70 -72 -69
 3 -73 -71 73
 3 -74 74 -76
 3 8 76 -75
 3 77 -79 -77
 3 79 80 -82
 3 81 -83 -78
 3 83 84 -86
 3 86 -84 58
 3 85 -88 29
 3 -89 14 87
 3 89 -91 -92
 3 -93 -90 93
 3 91 -95 -2
 3 -80 -8 94
 3 -96 88 96
 3 97 98 -100
 3 100 -98 95
 3 99 -102 15
 3 102 -104 101
 3 104 -106 103
 3 106 -108 105
 3 108 -110 107
 3 110 -112 109
 3 112 -114 111
 3 114 -116 113
 3 -117 9 115
 3 -21 116 -118
 3 117 -119 -25
 3 -120 -31 118
 3 -35 119 -121
 3 120 -122 -39
 3 -123 -43 121
 3 -124 122 -125
 3 46 123 -126
 3 125 -127 3
 3 -94 0 126
 3 -128 128 -130
 3 -131 -132 132
 3 133 -133 -129
 3 134 -136 -134
 3 136 137 -139
 3 130 139 -137
 3 140 141 -143
 3 -138 143 -141
 3 -145 145 102
 3 -66 146 -146
 3 -148 148 106
 3 -70 149 -149
 3 -151 151 110
 3 -73 152 -152
 3 -154 154 114
 3 -79 155 -155
 3 -91 80 156
 3 -93 157 -125
 3 -157 158 -158
 3 -83 153 -159
 3 -156 159 112
 3 -76 150 -160
 3 -153 160 108
 3 -72 147 -161
 3 -150 161 104
 3 -67 144 -162
 3 -163 163 -165
 3 165 -167 162
 3 -168 -166 168
 3 169 -171 167
 3 171 172 -174
 3 -164 174 -172
 3 -176 -170 176
 3 177 -179 175
 3 -180 -178 180
 3 181 -183 179
 3 183 184 -186
 3 186 -188 -184
 3 -173 188 -187
 3 189 -182 -191
 3 -142 191 -190
 3 192 -194 187
 3 -147 194 98
 3 -64 195 -195
 3 100 -196 196
 3 -197 197 198
 3 55 86 -198
 3 -199 84 96
 3 -200 200 185
 3 -202 -103 202
 3 -105 201 -204
 3 203 -205 -107
 3 -206 -109 204
 3 -111 205 -207
 3 206 -201 -113
 3 199 -208 -115
 3 -209 124 207
 3 -210 -101 210
 3 -99 209 -203
 3 -211 211 173
 3 212 164 -212
 3 -169 -213 213
 3 -214 214 -177
 3 215 -181 -215
 3 190 -216 216
 3 -217 217 142
 3 -97 218 -218
 3 219 138 -219
 3 220 129 -222
 3 221 131 -220
 3 -85 222 -221
 3 223 127 -223
 3 -225 225 -135
 3 -87 224 -224
 3 208 -185 -227
 3 226 -228 92
 3 193 -229 227
 3 -230 90 228
 3 230 135 -232
 3 -193 -233 229
 3 -189 -234 232
 3 -175 -235 233
 3 -236 -81 234
 3 -237 235 166
 3 -238 236 170
 3 -239 237 178
 3 -240 238 182
 3 -241 239 -192
 3 -242 240 -144
 3 -243 241 -140
 3 82 242 -244
 3 243 -245 78
 3 -246 75 244
 3 72 245 -247
 3 246 -248 71
 3 -249 69 247
 3 66 248 -250
 3 249 -231 65
 3 231 -251 63
 3 -226 -56 250

  }

  Locations (176) {
eeeeeeeeee
eeeeeeeeee
eeeeeeeeee
eeeeeeeeee
eeeeeeeeee
eeeeeeeeee
eeeeeeeeee
eeeeeeeeee
eeeeiiiiii
iiiiiiiiii
iieeeeeeee
eeeeeeeeii
iiiieeeeee
eeeeeeeeee
eeeeeeeeee
eeeeeeeeee
eeeeeeeeee
eeeeee
  }

  Elements (2) {
 10 100 76 77 78 79 80 81 82 83
 84 85 86 87 88 89 90 91 92 93
 94 95 96 97 98 99 100 101 102 103
 104 105 106 107 108 109 110 111 112 113
 114 115 116 117 118 119 120 121 122 123
 124 125 126 127 128 129 130 131 132 133
 134 135 136 137 138 139 140 141 142 143
 144 145 146 147 148 149 150 151 152 153
 154 155 156 157 158 159 160 161 162 163
 164 165 166 167 168 169 170 171 172 173
 174 175
 10 100 -124 -121 -122 -123 -119 -120 -85 -86
 0 1 2 3 -97 -98 -89 -90 -91 -92
 -99 -100 -87 -88 -94 -95 -96 -101 -102 -93
 4 5 6 7 8 9 10 11 12 13
 14 15 16 17 18 19 20 21 22 23
 24 25 26 27 28 29 30 31 32 33
 34 35 36 37 38 39 40 41 42 43
 44 45 46 47 48 49 50 51 52 53
 54 55 56 57 58 59 60 61 62 63
 64 65 66 67 68 69 70 71 72 73
 74 75

  }

  Region ("Bond_oxide") {
    material = Oxide
    Elements (1) {
 0
    }
  }

  Region ("Bottom_silicon") {
    material = Silicon
    Elements (1) {
 1
    }
  }

}
